% Model:              init.mph
% Version:            COMSOL 6.1.0.252
% Date:               Apr 25 2025, 21:05
% Dimension:          2
% Nodes:              1
% Expressions:        96
% Description:        
% Length unit:        m
% X                       Y                        (freq*a*2*pi/(c_const))^2 (1) @ lambda=1E-6, k1=-0.5, k2=-0.5 (freq*a*2*pi/(c_const))^2 (1) @ lambda=2E-6, k1=-0.5, k2=-0.5 (freq*a*2*pi/(c_const))^2 (1) @ lambda=3E-6, k1=-0.5, k2=-0.5 (freq*a*2*pi/(c_const))^2 (1) @ lambda=4E-6, k1=-0.5, k2=-0.5 (freq*a*2*pi/(c_const))^2 (1) @ lambda=5E-6, k1=-0.5, k2=-0.5 (freq*a*2*pi/(c_const))^2 (1) @ lambda=6E-6, k1=-0.5, k2=-0.5 (freq*a*2*pi/(c_const))^2 (1) @ lambda=1E-6, k1=-0.5, k2=-0.25 (freq*a*2*pi/(c_const))^2 (1) @ lambda=2E-6, k1=-0.5, k2=-0.25 (freq*a*2*pi/(c_const))^2 (1) @ lambda=3E-6, k1=-0.5, k2=-0.25 (freq*a*2*pi/(c_const))^2 (1) @ lambda=4E-6, k1=-0.5, k2=-0.25 (freq*a*2*pi/(c_const))^2 (1) @ lambda=5E-6, k1=-0.5, k2=-0.25 (freq*a*2*pi/(c_const))^2 (1) @ lambda=6E-6, k1=-0.5, k2=-0.25 (freq*a*2*pi/(c_const))^2 (1) @ lambda=1E-6, k1=-0.5, k2=0 (freq*a*2*pi/(c_const))^2 (1) @ lambda=2E-6, k1=-0.5, k2=0 (freq*a*2*pi/(c_const))^2 (1) @ lambda=3E-6, k1=-0.5, k2=0 (freq*a*2*pi/(c_const))^2 (1) @ lambda=4E-6, k1=-0.5, k2=0 (freq*a*2*pi/(c_const))^2 (1) @ lambda=5E-6, k1=-0.5, k2=0 (freq*a*2*pi/(c_const))^2 (1) @ lambda=6E-6, k1=-0.5, k2=0 (freq*a*2*pi/(c_const))^2 (1) @ lambda=1E-6, k1=-0.5, k2=0.25 (freq*a*2*pi/(c_const))^2 (1) @ lambda=2E-6, k1=-0.5, k2=0.25 (freq*a*2*pi/(c_const))^2 (1) @ lambda=3E-6, k1=-0.5, k2=0.25 (freq*a*2*pi/(c_const))^2 (1) @ lambda=4E-6, k1=-0.5, k2=0.25 (freq*a*2*pi/(c_const))^2 (1) @ lambda=5E-6, k1=-0.5, k2=0.25 (freq*a*2*pi/(c_const))^2 (1) @ lambda=6E-6, k1=-0.5, k2=0.25 (freq*a*2*pi/(c_const))^2 (1) @ lambda=1E-6, k1=-0.25, k2=-0.5 (freq*a*2*pi/(c_const))^2 (1) @ lambda=2E-6, k1=-0.25, k2=-0.5 (freq*a*2*pi/(c_const))^2 (1) @ lambda=3E-6, k1=-0.25, k2=-0.5 (freq*a*2*pi/(c_const))^2 (1) @ lambda=4E-6, k1=-0.25, k2=-0.5 (freq*a*2*pi/(c_const))^2 (1) @ lambda=5E-6, k1=-0.25, k2=-0.5 (freq*a*2*pi/(c_const))^2 (1) @ lambda=6E-6, k1=-0.25, k2=-0.5 (freq*a*2*pi/(c_const))^2 (1) @ lambda=1E-6, k1=-0.25, k2=-0.25 (freq*a*2*pi/(c_const))^2 (1) @ lambda=2E-6, k1=-0.25, k2=-0.25 (freq*a*2*pi/(c_const))^2 (1) @ lambda=3E-6, k1=-0.25, k2=-0.25 (freq*a*2*pi/(c_const))^2 (1) @ lambda=4E-6, k1=-0.25, k2=-0.25 (freq*a*2*pi/(c_const))^2 (1) @ lambda=5E-6, k1=-0.25, k2=-0.25 (freq*a*2*pi/(c_const))^2 (1) @ lambda=6E-6, k1=-0.25, k2=-0.25 (freq*a*2*pi/(c_const))^2 (1) @ lambda=1E-6, k1=-0.25, k2=0 (freq*a*2*pi/(c_const))^2 (1) @ lambda=2E-6, k1=-0.25, k2=0 (freq*a*2*pi/(c_const))^2 (1) @ lambda=3E-6, k1=-0.25, k2=0 (freq*a*2*pi/(c_const))^2 (1) @ lambda=4E-6, k1=-0.25, k2=0 (freq*a*2*pi/(c_const))^2 (1) @ lambda=5E-6, k1=-0.25, k2=0 (freq*a*2*pi/(c_const))^2 (1) @ lambda=6E-6, k1=-0.25, k2=0 (freq*a*2*pi/(c_const))^2 (1) @ lambda=1E-6, k1=-0.25, k2=0.25 (freq*a*2*pi/(c_const))^2 (1) @ lambda=2E-6, k1=-0.25, k2=0.25 (freq*a*2*pi/(c_const))^2 (1) @ lambda=3E-6, k1=-0.25, k2=0.25 (freq*a*2*pi/(c_const))^2 (1) @ lambda=4E-6, k1=-0.25, k2=0.25 (freq*a*2*pi/(c_const))^2 (1) @ lambda=5E-6, k1=-0.25, k2=0.25 (freq*a*2*pi/(c_const))^2 (1) @ lambda=6E-6, k1=-0.25, k2=0.25 (freq*a*2*pi/(c_const))^2 (1) @ lambda=1E-6, k1=0, k2=-0.5 (freq*a*2*pi/(c_const))^2 (1) @ lambda=2E-6, k1=0, k2=-0.5 (freq*a*2*pi/(c_const))^2 (1) @ lambda=3E-6, k1=0, k2=-0.5 (freq*a*2*pi/(c_const))^2 (1) @ lambda=4E-6, k1=0, k2=-0.5 (freq*a*2*pi/(c_const))^2 (1) @ lambda=5E-6, k1=0, k2=-0.5 (freq*a*2*pi/(c_const))^2 (1) @ lambda=6E-6, k1=0, k2=-0.5 (freq*a*2*pi/(c_const))^2 (1) @ lambda=1E-6, k1=0, k2=-0.25 (freq*a*2*pi/(c_const))^2 (1) @ lambda=2E-6, k1=0, k2=-0.25 (freq*a*2*pi/(c_const))^2 (1) @ lambda=3E-6, k1=0, k2=-0.25 (freq*a*2*pi/(c_const))^2 (1) @ lambda=4E-6, k1=0, k2=-0.25 (freq*a*2*pi/(c_const))^2 (1) @ lambda=5E-6, k1=0, k2=-0.25 (freq*a*2*pi/(c_const))^2 (1) @ lambda=6E-6, k1=0, k2=-0.25 (freq*a*2*pi/(c_const))^2 (1) @ lambda=1E-6, k1=0, k2=0 (freq*a*2*pi/(c_const))^2 (1) @ lambda=2E-6, k1=0, k2=0 (freq*a*2*pi/(c_const))^2 (1) @ lambda=3E-6, k1=0, k2=0 (freq*a*2*pi/(c_const))^2 (1) @ lambda=4E-6, k1=0, k2=0 (freq*a*2*pi/(c_const))^2 (1) @ lambda=5E-6, k1=0, k2=0 (freq*a*2*pi/(c_const))^2 (1) @ lambda=6E-6, k1=0, k2=0 (freq*a*2*pi/(c_const))^2 (1) @ lambda=1E-6, k1=0, k2=0.25 (freq*a*2*pi/(c_const))^2 (1) @ lambda=2E-6, k1=0, k2=0.25 (freq*a*2*pi/(c_const))^2 (1) @ lambda=3E-6, k1=0, k2=0.25 (freq*a*2*pi/(c_const))^2 (1) @ lambda=4E-6, k1=0, k2=0.25 (freq*a*2*pi/(c_const))^2 (1) @ lambda=5E-6, k1=0, k2=0.25 (freq*a*2*pi/(c_const))^2 (1) @ lambda=6E-6, k1=0, k2=0.25 (freq*a*2*pi/(c_const))^2 (1) @ lambda=1E-6, k1=0.25, k2=-0.5 (freq*a*2*pi/(c_const))^2 (1) @ lambda=2E-6, k1=0.25, k2=-0.5 (freq*a*2*pi/(c_const))^2 (1) @ lambda=3E-6, k1=0.25, k2=-0.5 (freq*a*2*pi/(c_const))^2 (1) @ lambda=4E-6, k1=0.25, k2=-0.5 (freq*a*2*pi/(c_const))^2 (1) @ lambda=5E-6, k1=0.25, k2=-0.5 (freq*a*2*pi/(c_const))^2 (1) @ lambda=6E-6, k1=0.25, k2=-0.5 (freq*a*2*pi/(c_const))^2 (1) @ lambda=1E-6, k1=0.25, k2=-0.25 (freq*a*2*pi/(c_const))^2 (1) @ lambda=2E-6, k1=0.25, k2=-0.25 (freq*a*2*pi/(c_const))^2 (1) @ lambda=3E-6, k1=0.25, k2=-0.25 (freq*a*2*pi/(c_const))^2 (1) @ lambda=4E-6, k1=0.25, k2=-0.25 (freq*a*2*pi/(c_const))^2 (1) @ lambda=5E-6, k1=0.25, k2=-0.25 (freq*a*2*pi/(c_const))^2 (1) @ lambda=6E-6, k1=0.25, k2=-0.25 (freq*a*2*pi/(c_const))^2 (1) @ lambda=1E-6, k1=0.25, k2=0 (freq*a*2*pi/(c_const))^2 (1) @ lambda=2E-6, k1=0.25, k2=0 (freq*a*2*pi/(c_const))^2 (1) @ lambda=3E-6, k1=0.25, k2=0 (freq*a*2*pi/(c_const))^2 (1) @ lambda=4E-6, k1=0.25, k2=0 (freq*a*2*pi/(c_const))^2 (1) @ lambda=5E-6, k1=0.25, k2=0 (freq*a*2*pi/(c_const))^2 (1) @ lambda=6E-6, k1=0.25, k2=0 (freq*a*2*pi/(c_const))^2 (1) @ lambda=1E-6, k1=0.25, k2=0.25 (freq*a*2*pi/(c_const))^2 (1) @ lambda=2E-6, k1=0.25, k2=0.25 (freq*a*2*pi/(c_const))^2 (1) @ lambda=3E-6, k1=0.25, k2=0.25 (freq*a*2*pi/(c_const))^2 (1) @ lambda=4E-6, k1=0.25, k2=0.25 (freq*a*2*pi/(c_const))^2 (1) @ lambda=5E-6, k1=0.25, k2=0.25 (freq*a*2*pi/(c_const))^2 (1) @ lambda=6E-6, k1=0.25, k2=0.25
0                         0                        2.1686761620288437                                4.966570356393321                                 4.9665703563932855                                10.864566040117458                                14.50702476102857                                 16.415103275217238                                1.784062220683489                                 4.248148529020733                                 5.843233294201205                                 12.072111451731335                                13.646906558476985                                15.750597898886454                                1.5024641930225282                                3.668355105740992                                 6.779887889550542                                 12.46254112031805                                 13.419636676923762                                15.51149366855046                                 1.7840622206834849                                4.248148529020721                                 5.84323329420119                                  12.072111451731343                                13.646906558476928                                15.750597898886422                                1.784062220683482                                 4.2481485290207415                                5.843233294201186                                 12.072111451731372                                13.646906558476989                                15.750597898886447                                1.0661960175404628                                5.23088496505272                                  5.692785902860098                                 12.593534433278137                                13.355755879401363                                14.061538242343532                                0.5762392315302585                                5.122762127887445                                 6.674752999059208                                 11.885158290243972                                13.219983474333981                                13.737907768947498                                1.0661960175404586                                5.230884965052679                                 5.692785902860098                                 12.593534433278137                                13.355755879401391                                14.061538242343541                                1.5024641930225522                                3.668355105740981                                 6.779887889550512                                 12.462541120318166                                13.419636676923762                                15.511493668550473                                0.5762392315302541                                5.122762127887431                                 6.674752999059206                                 11.88515829024387                                 13.219983474334004                                13.737907768947556                                -8.067459562716375E-12   6.575366877513617        6.575366877513655        10.584283671764059       12.247134075347844       14.068361436524649       0.5762392315302551                                5.122762127887425                                 6.674752999059206                                 11.885158290243917                                13.219983474333969                                13.737907768947474                                1.7840622206834844                                4.24814852902074                                  5.843233294201199                                 12.072111451731363                                13.646906558476955                                15.750597898886415                                1.066196017540459                                 5.230884965052696                                 5.692785902860125                                 12.593534433278172                                13.355755879401466                                14.061538242343548                                0.5762392315302568                                5.122762127887417                                 6.674752999059224                                 11.885158290243815                                13.219983474333969                                13.737907768947514                                1.0661960175404628                                5.230884965052712                                 5.692785902860096                                 12.593534433278117                                13.355755879401437                                14.061538242343538
