% Model:              init.mph
% Version:            COMSOL 6.1.0.252
% Date:               Apr 10 2025, 16:32
% Dimension:          2
% Nodes:              3637
% Expressions:        1
% Description:        相对介电常数，xx 分量
% Length unit:        m
% X                       Y                        ewfd.epsilonrmxx (1) @ lambda=1E-6, k1=-0.5, k2=-0.5
-0.29570537975653927      -0.11209689627929305     1
-0.27716385886007583      -0.11480503186616843     1
-0.2840790426930577       -0.09643182826533918     1
-0.30224992970367887      -0.09254722994543203     1
-0.2897777467401016       -0.07764571780999607     1
-0.30734835883458095      -0.07274534138048416     1
-0.2942355861772627       -0.05852708626715129     1
-0.26906182410512897      -0.13268660372931626     1
-0.28798030098183075      -0.13121118485486627     1
-0.2681353651279704       -0.16654538606504227     1
-0.24944087969716647      -0.16667107588272087     1
-0.25980762599941665      -0.14999999157515712     1
-0.27887305962605763      -0.149455425091911       1
-0.2562569159966954       -0.1818691426395013      1
-0.23800600983777967      -0.1826284186020859      1
-0.2456997959161352       -0.2010586345318542      1
-0.22555193754100084      -0.19780374989241345     1
-0.3112640558959834       -0.05264894731811684     1
-0.2974334583839625       -0.039157857880068384    1
-0.3148525754018431       -0.03158796359542034     1
-0.2993576771904502       -0.01962093542974352     1
-0.23053794372390388      -0.21212238725242083     1
-0.21213203435596423      -0.21213203435596423     1
-0.3125668749981426       -0.01384235661751727     1
-0.3                      1.8369701987446302E-17   1
-0.13268660372931632      -0.26906182410512897     1
-0.13121118485486633      -0.28798030098183075     1
-0.11480503186616849      -0.2771638588600759      1
-0.14945542509191106      -0.27887305962605763     1
-0.14999999157515717      -0.25980762599941665     1
-0.16654538606504232      -0.2681353651279704      1
-0.16667107588272093      -0.2494408796971665      1
-0.11209689627929312      -0.2957053797565393      1
-0.09643182826533925      -0.2840790426930578      1
-0.0925472299454321       -0.3022499297036789      1
-0.07764571780999614      -0.28977774674010165     1
-0.07274534138048423      -0.307348358834581       1
-0.058527086267151356     -0.29423558617726275     1
-0.05264894731811691      -0.31126405589598344     1
-0.03915785788006845      -0.29743345838396257     1
-0.03158796359542041      -0.31485257540184314     1
-0.019620935429743587     -0.29935767719045026     1
-0.18186914263950135      -0.2562569159966954      1
-0.18262841860208595      -0.2380060098377797      1
-0.1978037498924135       -0.22555193754100084     1
-0.20105863453185427      -0.2456997959161352      1
-0.01384235661751734      -0.3125668749981427      1
-3.6739403974892605E-17   -0.3                     1
-0.21212238725242089      -0.23053794372390388     1
-0.3125668749981426       0.01384235661751736      1
-0.2993576771904502       0.01962093542974361      1
-0.3148525754018431       0.03158796359542043      1
-0.2974334583839625       0.039157857880068474     1
-0.3112640558959834       0.05264894731811693      1
-0.2942355861772627       0.05852708626715138      1
-0.30734835883458095      0.07274534138048425      1
-0.2897777467401016       0.07764571780999616      1
-0.30224992970367887      0.09254722994543212      1
-0.2840790426930577       0.09643182826533926      1
-0.29570537975653927      0.11209689627929313      1
-0.27716385886007583      0.11480503186616851      1
-0.26906182410512897      0.13268660372931634      1
-0.28798030098183075      0.13121118485486635      1
-0.27887305962605763      0.1494554250919111       1
-0.25980762599941665      0.1499999915751572       1
-0.2681353651279704       0.16654538606504235      1
-0.24944087969716644      0.16667107588272095      1
-0.2562569159966954       0.18186914263950138      1
-0.23800600983777964      0.18262841860208598      1
-0.2255519375410008       0.19780374989241353      1
-0.24569979591613517      0.2010586345318543       1
-0.23053794372390385      0.2121223872524209       1
-0.21213203435596423      0.21213203435596423      1
-0.21212238725242089      0.23053794372390388      1
-0.1978037498924135       0.22555193754100084      1
-0.18262841860208595      0.23800600983777967      1
-0.20105863453185427      0.2456997959161352       1
-0.18186914263950135      0.2562569159966954       1
-0.16667107588272093      0.24944087969716647      1
-0.16654538606504232      0.2681353651279704       1
-0.14999999157515717      0.25980762599941665      1
-0.14945542509191106      0.27887305962605763      1
-0.13268660372931632      0.26906182410512897      1
-0.11480503186616849      0.27716385886007583      1
-0.13121118485486633      0.28798030098183075      1
-0.1120968962792931       0.29570537975653927      1
-0.09643182826533923      0.2840790426930577       1
-0.09254722994543209      0.30224992970367887      1
-0.07764571780999613      0.2897777467401016       1
-0.07274534138048422      0.30734835883458095      1
-0.05852708626715135      0.2942355861772627       1
-0.052648947318116895     0.3112640558959834       1
-0.03915785788006844      0.2974334583839625       1
-0.0315879635954204       0.3148525754018431       1
-0.019620935429743577     0.2993576771904502       1
-0.013842356617517326     0.3125668749981426       1
0                         0.3                      1
0.013842356617517291      -0.3125668749981427      1
0.019620935429743545      -0.29935767719045026     1
0.03158796359542036       -0.31485257540184314     1
0.039157857880068404      -0.29743345838396257     1
0.05264894731811686       -0.31126405589598344     1
0.05852708626715132       -0.29423558617726275     1
0.07274534138048418       -0.307348358834581       1
0.07764571780999609       -0.28977774674010165     1
0.09254722994543205       -0.3022499297036789      1
0.09643182826533919       -0.2840790426930578      1
0.11209689627929306       -0.2957053797565393      1
0.11480503186616846       -0.2771638588600759      1
0.1326866037293163        -0.2690618241051291      1
0.1312111848548663        -0.28798030098183086     1
0.14945542509191104       -0.27887305962605774     1
0.14999999157515714       -0.25980762599941676     1
0.1665453860650423        -0.26813536512797054     1
0.1666710758827209        -0.24944087969716652     1
0.18186914263950132       -0.25625691599669553     1
0.18262841860208592       -0.23800600983777973     1
0.20105863453185424       -0.24569979591613528     1
0.19780374989241348       -0.22555193754100092     1
0.21212238725242086       -0.23053794372390396     1
0.2121320343559642        -0.21213203435596426     1
0.013842356617517305      0.3125668749981426       1
0.019620935429743556      0.2993576771904502       1
0.031587963595420376      0.3148525754018431       1
0.03915785788006842       0.2974334583839625       1
0.052648947318116875      0.3112640558959834       1
0.05852708626715133       0.2942355861772627       1
0.07274534138048419       0.30734835883458095      1
0.0776457178099961        0.2897777467401016       1
0.09254722994543206       0.30224992970367887      1
0.0964318282653392        0.2840790426930577       1
0.11209689627929308       0.29570537975653927      1
0.11480503186616846       0.27716385886007583      1
0.1326866037293163        0.26906182410512897      1
0.1312111848548663        0.28798030098183075      1
0.14945542509191104       0.27887305962605763      1
0.14999999157515714       0.25980762599941665      1
0.1665453860650423        0.2681353651279704       1
0.1666710758827209        0.24944087969716644      1
0.18186914263950132       0.2562569159966954       1
0.18262841860208592       0.23800600983777964      1
0.21212238725242086       0.23053794372390385      1
0.19780374989241348       0.2255519375410008       1
0.21213203435596423       0.21213203435596423      1
0.20105863453185424       0.24569979591613517      1
0.23053794372390382       -0.212122387252421       1
0.22555193754100078       -0.19780374989241362     1
0.23800600983777964       -0.18262841860208606     1
0.24569979591613514       -0.20105863453185438     1
0.25625691599669537       -0.18186914263950146     1
0.24944087969716644       -0.16667107588272104     1
0.26813536512797037       -0.16654538606504243     1
0.2598076259994166        -0.14999999157515728     1
0.2788730596260576        -0.14945542509191118     1
0.2690618241051289        -0.13268660372931643     1
0.2879803009818307        -0.13121118485486644     1
0.27716385886007583       -0.1148050318661686      1
0.29570537975653927       -0.11209689627929323     1
0.2840790426930577        -0.09643182826533936     1
0.30224992970367887       -0.09254722994543221     1
0.2897777467401016        -0.07764571780999625     1
0.30734835883458095       -0.07274534138048434     1
0.2942355861772627        -0.05852708626715147     1
0.3112640558959834        -0.05264894731811702     1
0.2974334583839625        -0.039157857880068564    1
0.3148525754018431        -0.03158796359542052     1
0.2993576771904502        -0.019620935429743698    1
0.3125668749981426        -0.01384235661751745     1
0.3                       -5.510910596233891E-17   1
0.3125668749981426        0.01384235661751718      1
0.2993576771904502        0.019620935429743434     1
0.3148525754018431        0.03158796359542025      1
0.2974334583839625        0.03915785788006829      1
0.3112640558959834        0.05264894731811675      1
0.2942355861772627        0.05852708626715121      1
0.30734835883458095       0.07274534138048407      1
0.2897777467401016        0.07764571780999598      1
0.30224992970367887       0.09254722994543194      1
0.2840790426930577        0.09643182826533908      1
0.29570537975653927       0.11209689627929295      1
0.27716385886007583       0.11480503186616835      1
0.269061824105129         0.13268660372931618      1
0.2879803009818308        0.1312111848548662       1
0.2788730596260577        0.14945542509191093      1
0.2598076259994167        0.14999999157515703      1
0.2681353651279705        0.16654538606504218      1
0.24944087969716647       0.1666710758827208       1
0.2562569159966955        0.1818691426395012       1
0.23800600983777967       0.1826284186020858       1
0.2305379437239039        0.21212238725242075      1
0.22555193754100086       0.19780374989241337      1
0.24569979591613522       0.20105863453185413      1
-0.4862920016359985       -0.4862920016359986      1
-0.5                      -0.48000000000000004     1
-0.5                      -0.49999999999999994     1
-0.4860219718446845       -0.46657144920937976     1
-0.5                      -0.46                    1
-0.47258400327199673      -0.4725840032719969      1
-0.48400264878060545      -0.44834525836684647     1
-0.5                      -0.44                    1
-0.4735039623532451       -0.4570091103364787      1
-0.4838643557672743       -0.429218865912326       1
-0.5                      -0.42                    1
-0.4837542340685849       -0.40904029965408456     1
-0.5                      -0.39999999999999997     1
-0.458876004907995        -0.4588760049079952      1
-0.4669453757830573       -0.44016687814558203     1
-0.46751273347193223      -0.41822855816671        1
-0.48402358881697355      -0.38937833940289374     1
-0.5                      -0.37999999999999995     1
-0.46813456683258076      -0.3980610981657062      1
-0.4838958246662468       -0.3696223194996965      1
-0.5                      -0.35999999999999993     1
-0.4836800312549894       -0.3497952775105253      1
-0.5                      -0.3399999999999999      1
-0.4451680065439933       -0.4451680065439934      1
-0.4496588963908708       -0.4260251186925872      1
-0.45189104632969374      -0.40611878648272487     1
-0.468156262633837        -0.37891097022225634     1
-0.4532484257289812       -0.38711767501907074     1
-0.4675491952070315       -0.35965210560388566     1
-0.4836553206279551       -0.32984471579994723     1
-0.5                      -0.3199999999999999      1
-0.46699723106232394      -0.33965333528256914     1
-0.48394114928889864      -0.3100258992840137      1
-0.5                      -0.2999999999999999      1
-0.48411048266539575      -0.2902507721271112      1
-0.5                      -0.27999999999999986     1
-0.4314600081799916       -0.4314600081799917      1
-0.434905629250476        -0.4126080470399296      1
-0.43788602630332113      -0.3946722218123453      1
-0.45209772600205866      -0.36963498139870804     1
-0.440831296145439        -0.38007067132448163     1
-0.45047662554444035      -0.35029599826324004     1
-0.4675112115534964       -0.31966908433725044     1
-0.44911389952496783      -0.3286629653677234      1
-0.483926417392099        -0.2701175668831002      1
-0.5                      -0.25999999999999984     1
-0.46833202158792425      -0.3003579684532314      1
-0.46803906335898093      -0.2801307237039272      1
-0.4839003295914475       -0.250082395466105       1
-0.5                      -0.23999999999999982     1
-0.4177520098159899       -0.41775200981599        1
-0.4214442284645451       -0.3993882991331137      1
-0.4258079592894461       -0.3814360211309323      1
-0.43337406146040847      -0.36294396929183614     1
-0.4337276400098513       -0.341228632634718       1
-0.45322843812513847      -0.30937641946987193     1
-0.43924029165411543      -0.31485833697145804     1
-0.43295740888224776      -0.32570190521666215     1
-0.467766310391542        -0.2601431752478042      1
-0.45242491789015477      -0.2897844989003731      1
-0.45167580840418364      -0.2701292258009175      1
-0.48390144313352046      -0.23006876939851356     1
-0.5                      -0.21999999999999983     1
-0.4838803419752473       -0.2100350911607632      1
-0.5                      -0.19999999999999984     1
-0.467833004008293        -0.24018099192644765     1
-0.4040440114519882       -0.40404401145198826     1
-0.4082697346760493       -0.3858174835474968      1
-0.41300812854531493      -0.36758848781315434     1
-0.4173097127335073       -0.34928779903186197     1
-0.4191258263970639       -0.33008395507575833     1
-0.4376376012822295       -0.29898490306392045     1
-0.42326411045599327      -0.3115654917391123      1
-0.4517242409396286       -0.25033466116486686     1
-0.43563657458247157      -0.2797277529103704      1
-0.4352403924665619       -0.26038192730781035     1
-0.4838454182297518       -0.18998916460128285     1
-0.5                      -0.17999999999999985     1
-0.48382939534276764      -0.1699447742654589      1
-0.5                      -0.15999999999999986     1
-0.48384535623208325      -0.1499084201335423      1
-0.5                      -0.13999999999999987     1
-0.46782038328444225      -0.22012878839781794     1
-0.46772813716196554      -0.2000219785757152      1
-0.4518939558139431       -0.23033303204961436     1
-0.3903360130879865       -0.39033601308798654     1
-0.3946376692258401       -0.3721469124451528      1
-0.39860877478224843      -0.35384995012519793     1
-0.4023354786134853       -0.33546449654535915     1
-0.4051606076872983       -0.31725540528683666     1
-0.42035378774009335      -0.2912324313609515      1
-0.4085680254848985       -0.3017969893224796      1
-0.43593597455324795      -0.24083961465660703     1
-0.4164045742301195       -0.2700955551392126      1
-0.42059291651574865      -0.25089937352571656     1
-0.4676514832194528       -0.17992202263023022     1
-0.46767042686066956      -0.15982917643706834     1
-0.4838720894897786       -0.12987988298793213     1
-0.5                      -0.11999999999999988     1
-0.46775380587283594      -0.13977171709955138     1
-0.4516886352999898       -0.21013124730028704     1
-0.45150541407019174      -0.18985646747632173     1
-0.4355961645837067       -0.22033035046362098     1
-0.37662801472398477      -0.3766280147239848      1
-0.38087067158953036      -0.3584278295286104      1
-0.3849164129557542       -0.34016554720210634     1
-0.3888876816857497       -0.321929270840272       1
-0.3935026376120729       -0.303620715851939       1
-0.4006119854855155       -0.2852241168255357      1
-0.41943127898623916      -0.23060089926760488     1
-0.40636164335165936      -0.2564712008660697      1
-0.39972812396818164      -0.26742217570919047     1
-0.40476732282816735      -0.24095801906333356     1
-0.45144661779656764      -0.16972916374091795     1
-0.4839002953477223       -0.10986075355469327     1
-0.5                      -0.0999999999999999      1
-0.4838676327218037       -0.08980687107785819     1
-0.5                      -0.0799999999999999      1
-0.45160125363802756      -0.1496136442030614      1
-0.4678430055496842       -0.11974968532195042     1
-0.45180328502934053      -0.12959910385896894     1
-0.4353312276727033       -0.19978259491805014     1
-0.4352536270159331       -0.17943486734043415     1
-0.4189764846117045       -0.20990615892985115     1
-0.36292001635998306      -0.3629200163599831      1
-0.36733203947435156      -0.3448142233672129      1
-0.37146383158915997      -0.3265075128059858      1
-0.37595678281240974      -0.3082592678471805      1
-0.38080782335745905      -0.29010517599574703     1
-0.3849189991034023       -0.2722960394186263      1
-0.4007188108248602       -0.22067187896649995     1
-0.3903434176702113       -0.2530239662965079      1
-0.3898536700424761       -0.23548688974575538     1
-0.43534503788614587      -0.1593455048718157      1
-0.48376928110447737      -0.06976624014851135     1
-0.5                      -0.059999999999999915    1
-0.4842564432295751       -0.049616636011474036    1
-0.5                      -0.039999999999999925    1
-0.46787163761557         -0.09973047808331108     1
-0.46779177360967444      -0.07966300075378847     1
-0.4357179664155922       -0.13931672554586322     1
-0.4519491622251813       -0.10963361939523107     1
-0.4360729523531062       -0.11944657115795082     1
-0.41899818682835477      -0.1889822485368635      1
-0.4189541476086589       -0.16884511908850536     1
-0.40296762687002996      -0.19781868336069644     1
-0.34921201799598134      -0.3492120179959814      1
-0.35366946542525346      -0.3310700266931993      1
-0.48532575914433096      -0.030562081233348942    1
-0.5                      -0.019999999999999934    1
-0.4870182916703625       -0.013715570268160955    1
-0.5                      3.061616997868383E-17    1
-0.35802059637387557      -0.3128067390492521      1
-0.3624214341277815       -0.29455344229051084     1
-0.3855041333761119       -0.2056884237197533      1
-0.3670253042246604       -0.27660247201118443     1
-0.37141817591232573      -0.25830713285432516     1
-0.38023110568326257      -0.2223612012303396      1
-0.375356061582885        -0.24022657143765105     1
-0.4194329764333615       -0.14881809977448882     1
-0.4676887755099635       -0.05953128137651976     1
-0.46861683746406113      -0.039335794045555685    1
-0.4519376827772444       -0.08966991684692742     1
-0.4516419917118564       -0.06948198905306952     1
-0.4201531935791853       -0.12901151521979162     1
-0.43625802167486455      -0.09958294676963558     1
-0.4206352664780157       -0.10949078484421479     1
-0.40251524109761627      -0.17809529848482086     1
-0.40237991617462665      -0.15817314480219524     1
-0.38792134891783614      -0.18808458471001055     1
-0.33550401963197957      -0.3355040196319797      1
-0.33987768877479596      -0.3172655010492616      1
-0.48000000000000004      5.551115123125783E-17    1
-0.4697656992074814       -0.018015770107456006    1
-0.4547088582696014       -0.03083591539096595     1
-0.37486465428994153      -0.1955585737044686      1
-0.3442524802897895       -0.2990060171679044      1
-0.3486714898444497       -0.28088984659092786     1
-0.36713932273127214      -0.2088282958238454      1
-0.353176166307497        -0.2627406924052032      1
-0.3576896987111381       -0.24495631188727837     1
-0.362600521885323        -0.22722503087375884     1
-0.40408468759237437      -0.13819064532489758     1
-0.45005632594013667      -0.049324028246719505    1
-0.4361371504741521       -0.07991908564646226     1
-0.43705986312836387      -0.06307692009400218     1
-0.4050133251619479       -0.11878028652914747     1
-0.420840526202681        -0.08932180000975444     1
-0.40548698239440195      -0.10079151395409457     1
-0.3860443359832747       -0.14733583994770094     1
-0.3832481083324741       -0.16775386619275792     1
-0.37278735780148575      -0.15564769728837213     1
-0.3719256256525629       -0.18183533876077088     1
-0.32179602126797785      -0.32179602126797796     1
-0.3260235496599004       -0.30341018248525603     1
-0.46                     5.551115123125783E-17    1
-0.4488450547425366       -0.015861113044613025    1
-0.4383587027223976       -0.032120981078121544    1
-0.36256918341460664      -0.19358384561107297     1
-0.35359539056328987      -0.2020806482024136      1
-0.33037406304457373      -0.28526552940223526     1
-0.3347725467934971       -0.26720604195110187     1
-0.350610269906369        -0.21530034742511098     1
-0.33928173780255483      -0.249347421279426       1
-0.34429024340185344      -0.23206393893057978     1
-0.39004564612699016      -0.1273107278454767      1
-0.42817152403632325      -0.048139668707082646    1
-0.419242588869412        -0.06844779789428602     1
-0.38967417480071953      -0.1078865319864095      1
-0.4049780515692225       -0.08372445119852877     1
-0.39405725486928456      -0.09335001561459623     1
-0.3751831878621461       -0.13109514382221787     1
-0.36855108376665385      -0.1436594547702789      1
-0.36276008372038354      -0.1526326771717375      1
-0.36333317720464253      -0.16685664835938527     1
-0.3544771069023933       -0.18023589385877153     1
-0.3080880229039762       -0.3080880229039762      1
-0.3120948990595615       -0.28964534112133516     1
-0.44000000000000006      5.551115123125783E-17    1
-0.4294304065863553       -0.016089964067795882    1
-0.41894004675943247      -0.032475197011552236    1
-0.3476083432373717       -0.19066065984487027     1
-0.33993780549424907      -0.2020805370079983      1
-0.31642193212340014      -0.27147783665160413     1
-0.32070541948443426      -0.2535373406944752      1
-0.32978696628799625      -0.2165155048413009      1
-0.3250537685034835       -0.23559368488821975     1
-0.37614669726177397      -0.1163750951096061      1
-0.3755641988341663       -0.10433949790528659     1
-0.4089647111531844       -0.04927265355652256     1
-0.3985462955219577       -0.06568000604764923     1
-0.38176258283562203      -0.09394578175335523     1
-0.38832410194986505      -0.08001767257741424     1
-0.36237619423588113      -0.11988605497298854     1
-0.3587396761501021       -0.13203988116348458     1
-0.3543310464633049       -0.142878138951534       1
-0.35014703943831166      -0.1552549961841196      1
-0.3450065032725467       -0.16744859789925198     1
-0.3388386179048164       -0.1783847425964868      1
-0.29438002453997447      -0.29438002453997447     1
-0.2982669484752773       -0.27584528576605927     1
-0.42000000000000004      5.551115123125783E-17    1
-0.4095773864082477       -0.01620831481876403     1
-0.3994082379662259       -0.03250377020444085     1
-0.3322787548444175       -0.18892097718065667     1
-0.3255615683380864       -0.1989202239656842      1
-0.30239271181199234      -0.25811410879103586     1
-0.30641587433182876      -0.24059864248101556     1
-0.3161981188987174       -0.20759879748086568     1
-0.30984088900676826      -0.22150789051055744     1
-0.36452254942547296      -0.10746422455363715     1
-0.3668531271107109       -0.09476540282538425     1
-0.3895908129925687       -0.04855789995617914     1
-0.37996652312232104      -0.06377114005903016     1
-0.37029811317535005      -0.07890013035932866     1
-0.3535608270176704       -0.11084003354667597     1
-0.34636646445155045      -0.12137471847624577     1
-0.34569994585624564      -0.13332907156091994     1
-0.338497569235517        -0.14410769339594623     1
-0.3367224599947667       -0.15619237562722066     1
-0.32816899132050115      -0.16553055836475802     1
-0.32549200785166793      -0.1775117684306122      1
-0.28067202617597276      -0.28067202617597276     1
-0.2842589700702264       -0.2621668056011765      1
-0.4                      5.551115123125783E-17    1
-0.3896856656761564       -0.01618088357690105     1
-0.37973156315029655      -0.032244872753708034    1
-0.3161070641530415       -0.18603834050849272     1
-0.31214820292057394      -0.1972133258936782      1
-0.28861176822301504      -0.2453271004768385      1
-0.29298031839326255      -0.2292786072412422      1
-0.3016417519706225       -0.20460938388922492     1
-0.29337048722213305      -0.21514860234833041     1
-0.3530233700719942       -0.09829363837864186     1
-0.35748141136851175      -0.08604399105803509     1
-0.37036840752998157      -0.04773485585942634     1
-0.36197647082530815      -0.06280307140350419     1
-0.3551206201533688       -0.07498247174074747     1
-0.3373668546134231       -0.10549576745924132     1
-0.3304438003136118       -0.12733652006019736     1
-0.3218128888988983       -0.1486164087873707      1
-0.31124345053670366      -0.16861343385294986     1
-0.26696402781197104      -0.2669640278119711      1
-0.27049859280385047      -0.24895199849916086     1
-0.38                     5.551115123125783E-17    1
-0.3693968065321679       -0.016128343684493472    1
-0.3601879456279485       -0.03185324165405364     1
-0.2988690328525422       -0.1863070470105169      1
-0.2751305186923573       -0.2317260520124562      1
-0.28190273601651483      -0.2185312794723178      1
-0.28325326734097195      -0.2025576164752136      1
-0.34190474289431166      -0.0835182991304004      1
-0.3507571294614464       -0.047178909330082855    1
-0.343912018182962        -0.06372630963041667     1
-0.3151777390821916       -0.10896618873233331     1
-0.3210941619852583       -0.08814052777057213     1
-0.3081859063513743       -0.12946588905152454     1
-0.2994282864586983       -0.14906848067100031     1
-0.2888258822215764       -0.16722143319789812     1
-0.2532560294479693       -0.2532560294479693      1
-0.2575378169196215       -0.2339888929838266      1
-0.36                     5.551115123125783E-17    1
-0.34947916310890836      -0.01591916214870107     1
-0.3413121596636224       -0.03186171093575091     1
-0.2764063406463706       -0.1833389160079704      1
-0.26477908843384956      -0.2139455192843465      1
-0.26580153056336286      -0.19603789245015796     1
-0.32533670264502795      -0.06794598558464927     1
-0.3283776539332228       -0.04592944920092764     1
-0.32844395110611196      -0.03170685720106047     1
-0.2395480310839676       -0.23954803108396766     1
-0.2435663357158788       -0.22114360591618273     1
-0.34                     5.551115123125783E-17    1
-0.32862412239841987      -0.018002884062422553    1
-0.2258400327199659       -0.22584003271996592     1
-0.32                     5.551115123125783E-17    1
-0.48000000000000015      -0.49999999999999994     1
-0.4665714492093799       -0.48602197184468443     1
-0.46000000000000013      -0.49999999999999994     1
-0.4483452583668466       -0.4840026487806054      1
-0.4400000000000001       -0.49999999999999994     1
-0.4570091103364788       -0.47350396235324504     1
-0.4292188659123261       -0.48386435576727427     1
-0.4200000000000001       -0.49999999999999994     1
-0.40904029965408467      -0.48375423406858487     1
-0.4000000000000001       -0.49999999999999994     1
-0.44016687814558214      -0.4669453757830572      1
-0.4182285581667101       -0.4675127334719322      1
-0.38937833940289385      -0.4840235888169735      1
-0.38000000000000006      -0.49999999999999994     1
-0.3980610981657063       -0.4681345668325807      1
-0.3696223194996966       -0.4838958246662468      1
-0.36000000000000004      -0.5                     1
-0.3497952775105254       -0.4836800312549894      1
-0.34                     -0.5                     1
-0.4260251186925873       -0.44965889639087075     1
-0.406118786482725        -0.4518910463296937      1
-0.37891097022225645      -0.4681562626338369      1
-0.38711767501907085      -0.45324842572898116     1
-0.3596521056038858       -0.4675491952070315      1
-0.32984471579994734      -0.4836553206279551      1
-0.32                     -0.5                     1
-0.33965333528256925      -0.46699723106232394     1
-0.3100258992840138       -0.48394114928889864     1
-0.3                      -0.5                     1
-0.2902507721271113       -0.48411048266539575     1
-0.27999999999999997      -0.5                     1
-0.4126080470399297       -0.43490562925047593     1
-0.3946722218123454       -0.4378860263033211      1
-0.36963498139870815      -0.45209772600205866     1
-0.38007067132448175      -0.4408312961454389      1
-0.2701175668831003       -0.483926417392099       1
-0.25999999999999995      -0.5                     1
-0.35029599826324015      -0.45047662554444035     1
-0.31966908433725055      -0.4675112115534964      1
-0.3286629653677235       -0.44911389952496783     1
-0.30035796845323154      -0.46833202158792425     1
-0.28013072370392733      -0.46803906335898093     1
-0.2500823954661051       -0.4839003295914475      1
-0.23999999999999994      -0.5                     1
-0.3993882991331138       -0.42144422846454505     1
-0.3814360211309324       -0.42580795928944604     1
-0.36294396929183625      -0.43337406146040847     1
-0.26014317524780434      -0.467766310391542       1
-0.3412286326347181       -0.4337276400098513      1
-0.30937641946987204      -0.45322843812513847     1
-0.32570190521666226      -0.43295740888224776     1